 TITLE = "FEM2D_ELASTICA_CG_SOLUTION"
 VARIABLES = "X", "Y", "UX", "UY"
 ZONE DATAPACKING=POINT, ZONETYPE=FEQUADRILATERAL,N=         293 ,E=         258
   0.0000000000000000        2.5000000000000000        0.0000000000000000       -3.4462861907780604E-013
  0.36417699999999997        2.4725540000000001        1.4160154363846363E-013  -3.5323237396106000E-013
  0.71948699999999999        2.3933179999999998        2.9081319681377498E-013  -3.4733308327720896E-013
   1.0637470000000000        2.2619829999999999        4.2720593481734178E-013  -3.2610774636607513E-013
   1.3833679999999999        2.0817510000000001        5.5669583949206959E-013  -3.0082085488816043E-013
   1.6745110000000001        1.8551249999999999        6.7803111223227109E-013  -2.6861002942362501E-013
   1.9325230000000000        1.5847290000000001        7.9111533350090940E-013  -2.3116982312215553E-013
   2.1421429999999999        1.2888850000000001        8.8612947796484572E-013  -1.9067870467714407E-013
   2.2961440000000000       0.98648000000000002        9.6018733446760863E-013  -1.4982810862835105E-013
   2.4094060000000002       0.66668600000000000        1.0165992643114792E-012  -1.0422122858293551E-013
   2.4762719999999998       0.33688699999999999        1.0523615663318729E-012  -5.5346101235295493E-014
   2.5000000000000000        0.0000000000000000        1.0683608380305485E-012   0.0000000000000000     
   2.8597229999999998        0.0000000000000000        1.0832289837061624E-012   0.0000000000000000     
   3.2307389999999998        0.0000000000000000        1.0891060844040673E-012   0.0000000000000000     
   3.6193190000000000        0.0000000000000000        1.1012785129817762E-012   0.0000000000000000     
   4.0279420000000004        0.0000000000000000        1.1161904792649111E-012   0.0000000000000000     
   4.4599000000000002        0.0000000000000000        1.1382159204851632E-012   0.0000000000000000     
   4.9195469999999997        0.0000000000000000        1.1660716305335709E-012   0.0000000000000000     
   5.4128470000000002        0.0000000000000000        1.2016305104155659E-012   0.0000000000000000     
   5.9482270000000002        0.0000000000000000        1.2453130112693010E-012   0.0000000000000000     
   6.5381960000000001        0.0000000000000000        1.2979021239340150E-012   0.0000000000000000     
   7.2028530000000002        0.0000000000000000        1.3608830024462385E-012   0.0000000000000000     
   7.9779590000000002        0.0000000000000000        1.4375864069735097E-012   0.0000000000000000     
   8.9383610000000004        0.0000000000000000        1.5362976870719477E-012   0.0000000000000000     
   10.279284000000001        0.0000000000000000        1.6816311222616129E-012   0.0000000000000000     
   12.207739000000000        0.0000000000000000        1.9070170346874324E-012   0.0000000000000000     
   14.155377000000000        0.0000000000000000        2.1544843505678332E-012   0.0000000000000000     
   16.103484000000002        0.0000000000000000        2.4179859886514491E-012   0.0000000000000000     
   18.051720000000000        0.0000000000000000        2.7227134065268163E-012   0.0000000000000000     
   20.000000000000000        0.0000000000000000        3.0528185244065971E-012   0.0000000000000000     
   20.000000000000000        1.9999720000000001        2.9856545743965093E-012  -3.2066294226900202E-014
   20.000000000000000        3.9999340000000001        2.8718258292228563E-012  -1.0878299456580327E-013
   20.000000000000000        5.9998860000000001        2.8221702632326692E-012  -1.6981143676778012E-013
   20.000000000000000        7.9998430000000003        2.7688954450333457E-012  -2.5028258765590436E-013
   20.000000000000000        9.9998210000000007        2.7263785949926552E-012  -3.3344928543276448E-013
   20.000000000000000        11.999822999999999        2.6930875716488070E-012  -4.2931273010632332E-013
   20.000000000000000        13.999845000000001        2.6732409231701805E-012  -5.3452554699959842E-013
   20.000000000000000        15.999884000000000        2.7100223460472665E-012  -6.6645817462199272E-013
   20.000000000000000        17.999938000000000        2.7550992450943220E-012  -7.9286158211066731E-013
   20.000000000000000        20.000000000000000        3.3647553937783886E-012  -9.8745614741154579E-013
   17.999938000000000        20.000000000000000        2.4451714904767393E-012  -6.6113288931043924E-013
   15.999884000000000        20.000000000000000        2.2058267938923139E-012  -7.5180652544741456E-013
   13.999844000000000        20.000000000000000        1.9027351582076270E-012  -7.4664403983499904E-013
   11.999822999999999        20.000000000000000        1.6306051389430423E-012  -7.7223112528935022E-013
   9.9998210000000007        20.000000000000000        1.3590931488082577E-012  -7.9361786054709986E-013
   7.9998430000000003        20.000000000000000        1.0940325261197030E-012  -8.1750763679220003E-013
   5.9998860000000001        20.000000000000000        8.2782488828525753E-013  -8.4233358714242256E-013
   3.9999340000000001        20.000000000000000        5.6776105591003230E-013  -8.5772411374560380E-013
   1.9999720000000001        20.000000000000000        2.8234087615661780E-013  -8.8883987687800120E-013
   0.0000000000000000        20.000000000000000        0.0000000000000000       -9.2972944837418519E-013
   0.0000000000000000        18.152531000000000        0.0000000000000000       -8.1648001291449319E-013
   0.0000000000000000        16.305101000000001        0.0000000000000000       -7.2606218997239498E-013
   0.0000000000000000        14.457775000000000        0.0000000000000000       -6.7477923396468322E-013
   0.0000000000000000        12.610779000000001        0.0000000000000000       -6.0871725315589637E-013
   0.0000000000000000        10.768598000000001        0.0000000000000000       -5.5527172144576405E-013
   0.0000000000000000        9.3193640000000002        0.0000000000000000       -5.1335065700181782E-013
   0.0000000000000000        8.3139550000000000        0.0000000000000000       -4.8520216116719123E-013
   0.0000000000000000        7.5203850000000001        0.0000000000000000       -4.6362587358798316E-013
   0.0000000000000000        6.8480730000000003        0.0000000000000000       -4.4711646459155985E-013
   0.0000000000000000        6.2557590000000003        0.0000000000000000       -4.3441212775481570E-013
   0.0000000000000000        5.7209450000000004        0.0000000000000000       -4.2462142898183252E-013
   0.0000000000000000        5.2299439999999997        0.0000000000000000       -4.1693981059687373E-013
   0.0000000000000000        4.7736650000000003        0.0000000000000000       -4.1079707134477587E-013
   0.0000000000000000        4.3457860000000004        0.0000000000000000       -4.0518264535405569E-013
   0.0000000000000000        3.9416750000000000        0.0000000000000000       -4.0051252678301999E-013
   0.0000000000000000        3.5578430000000001        0.0000000000000000       -3.9211463062011189E-013
   0.0000000000000000        3.1916509999999998        0.0000000000000000       -3.9001287261274258E-013
   0.0000000000000000        2.8410340000000001        0.0000000000000000       -3.6998001831266598E-013
  0.39329700000000001        2.7763110000000002        1.5112284998088177E-013  -3.8772491742867737E-013
  0.78206500000000001        2.6785500000000000        2.5063197235506686E-013  -3.5867587234128292E-013
   1.1628110000000000        2.5368080000000002        3.7542608457541152E-013  -3.3119814880197518E-013
   1.5286540000000000        2.3469869999999999        4.9639240942544807E-013  -2.8759687395290210E-013
   1.8687149999999999        2.1009110000000000        6.1887638298997777E-013  -2.4007242244397833E-013
   2.1580100000000000        1.7981769999999999        7.4092086081340855E-013  -1.9091749344016116E-013
   2.3919079999999999        1.4636940000000001        8.5095262289903276E-013  -1.4592100588656004E-013
   2.5724640000000001        1.1150910000000001        9.4056556249437045E-013  -1.0468972195107581E-013
   2.7067090000000000       0.75109999999999999        1.0131355775868262E-012  -6.9980382437453364E-014
   2.7991280000000001       0.37843199999999999        1.0610898671652189E-012  -3.2824158854802421E-014
   3.1534870000000002       0.42508699999999999        1.0737621357575041E-012  -1.9505759646876311E-014
   3.5380349999999998       0.47784700000000002        1.0769706446811571E-012  -1.3874675668965771E-014
   3.9542120000000001       0.53353600000000001        1.0938852636531409E-012  -1.2586822815675661E-014
   4.4034550000000001       0.59197299999999997        1.1128383603755881E-012  -1.0756467258376212E-014
   4.8852710000000004       0.63996399999999998        1.1418585542855292E-012  -1.1734370994527029E-014
   5.3998520000000001       0.70006900000000005        1.1779288618488557E-012  -1.3703612249628245E-014
   5.9598789999999999       0.77729999999999999        1.2223125637635193E-012  -1.6451948003587160E-014
   6.5847810000000004       0.88047100000000000        1.2760607876332540E-012  -1.9705890967146518E-014
   7.3041169999999997        1.0086869999999999        1.3422416242966669E-012  -2.3587009434218185E-014
   8.1628159999999994        1.1664890000000001        1.4259381488029802E-012  -2.9172197484131636E-014
   9.2309909999999995        1.3451010000000001        1.5370536839803454E-012  -3.7084312358334631E-014
   10.602712000000000        1.5284150000000001        1.6891457533921973E-012  -4.8142671102707250E-014
   12.314318999999999        1.6812160000000000        1.8935542889645400E-012  -5.8957971370603005E-014
   14.174007000000000        1.7972100000000000        2.1254265216596292E-012  -6.9811503434057797E-014
   16.096100000000000        1.8815160000000000        2.3813673781434867E-012  -6.9596417634107496E-014
   18.043620000000001        1.9457590000000000        2.6211983104256560E-012  -8.8914696572595468E-014
   18.025112000000000        3.9003779999999999        2.6737731869215431E-012  -1.4166648895329306E-013
   17.993735999999998        5.8726419999999999        2.5784301522081720E-012  -2.1697176502018084E-013
   17.957215000000001        7.8672060000000004        2.5294016733577580E-012  -2.8008339802894820E-013
   17.930439000000000        9.8840939999999993        2.4792478707172178E-012  -3.5833589389382559E-013
   17.923286000000001        11.912561000000000        2.4379404094968197E-012  -4.3557014890454732E-013
   17.932541000000001        13.942385000000000        2.4240010176918835E-012  -5.2419211144573935E-013
   17.951521000000000        15.966543000000000        2.4219343792364306E-012  -5.9638494842492963E-013
   17.974937000000001        17.985137999999999        2.6397837390372756E-012  -6.3536130139428802E-013
   15.947435000000000        17.972597000000000        2.1404396562071980E-012  -6.3319188372395598E-013
   13.916354000000000        17.966419999999999        1.9040747954944517E-012  -6.7620660613855394E-013
   11.884088000000000        17.971018999999998        1.6219647143200799E-012  -6.8732930662392407E-013
   9.8574590000000004        17.993069999999999        1.3561930582403870E-012  -7.1661592865858279E-013
   7.8476489999999997        18.031616000000000        1.0897845553973049E-012  -7.4315089477038891E-013
   5.8599870000000003        18.075941000000000        8.3183351724449071E-013  -7.6475152473034055E-013
   3.8938350000000002        18.112499000000000        5.6404800106009775E-013  -7.9577530661160090E-013
   1.9428810000000001        18.137218000000001        3.5506301716372106E-013  -8.1082579084722773E-013
   1.8773180000000000        16.281721000000001        2.0436851234247209E-013  -7.4459877487293960E-013
   1.7938130000000001        14.447637000000000        2.3036347320419147E-013  -6.5455882333751613E-013
   1.6841470000000001        12.662368000000001        2.0498939689221327E-013  -6.0827741956110545E-013
   1.5415270000000001        10.991870000000000        1.9292286089504026E-013  -5.5348383037688408E-013
   1.3709410000000000        9.5856309999999993        1.7868364312846034E-013  -5.1409573075874727E-013
   1.1914499999999999        8.4895899999999997        1.6352468117671017E-013  -4.8230245081484770E-013
   1.0304230000000001        7.6152280000000001        1.4425130420146047E-013  -4.5906033529158706E-013
  0.89640799999999998        6.8906390000000002        1.2695340824841252E-013  -4.4167186562908743E-013
  0.78995099999999996        6.2629960000000002        1.1308135797117615E-013  -4.2854023561266949E-013
  0.70525000000000004        5.7051470000000002        1.0291856825302017E-013  -4.1855061021203672E-013
  0.63815000000000000        5.1951890000000001        9.6050550439458854E-014  -4.1078056369692794E-013
  0.58376399999999995        4.7245609999999996        9.2008628299461746E-014  -4.0430222236117109E-013
  0.53875300000000004        4.2830389999999996        9.1041199942404945E-014  -3.9916975545201872E-013
  0.49964399999999998        3.8688319999999998        9.0778992830019803E-014  -3.9211470738657728E-013
  0.46318399999999998        3.4779599999999999        1.0101030544748289E-013  -3.9024956399412247E-013
  0.42727100000000001        3.1134439999999999        7.4058137167906737E-014  -3.7526957945058352E-013
  0.85307699999999997        3.0060120000000001        2.3860509514748633E-013  -3.8026249353371934E-013
   1.2772960000000000        2.8610820000000001        3.3788430585351864E-013  -3.2944842439586429E-013
   1.7000219999999999        2.6654480000000000        4.5712140914614772E-013  -2.8135584304427595E-013
   2.1134510000000000        2.4062939999999999        5.7871216819962904E-013  -2.2142981266259066E-013
   2.4385720000000002        2.0403370000000001        7.1369630687116252E-013  -1.6469696798731278E-013
   2.6939970000000000        1.6562820000000000        8.2984485880868471E-013  -1.1580877115951811E-013
   2.8944489999999998        1.2571340000000000        9.3338652712664514E-013  -8.0613725585366613E-014
   3.0449250000000001       0.84669700000000003        1.0072909306283394E-012  -3.7844848037667172E-014
   3.4237229999999998       0.95086499999999996        1.0339784135509747E-012  -3.7311402403645327E-014
   3.8445350000000000        1.0690200000000001        1.0345613832622131E-012  -2.7519733233183368E-014
   4.3109989999999998        1.1914549999999999        1.0574417816234733E-012  -2.6895826293835508E-014
   4.8129629999999999        1.2731570000000001        1.0894662314985107E-012  -2.7159770741716272E-014
   5.3356130000000004        1.3794090000000001        1.1288664382401352E-012  -3.1291718615647370E-014
   5.8992240000000002        1.5328850000000001        1.1734092553311608E-012  -3.6528775200861205E-014
   6.5293989999999997        1.7314769999999999        1.2267458612164455E-012  -4.2979087709630496E-014
   7.2574639999999997        1.9898960000000001        1.2924746791622191E-012  -5.1402227511037079E-014
   8.1303110000000007        2.3070240000000002        1.3772956320713628E-012  -6.1957376572502500E-014
   9.2121510000000004        2.6854960000000001        1.4885004006371235E-012  -8.0238955711689520E-014
   10.579592999999999        3.0824039999999999        1.6410796727543873E-012  -1.0127733254751723E-013
   12.267090000000000        3.3981750000000002        1.8401895437654874E-012  -1.2479863080946271E-013
   14.125826000000000        3.6227360000000002        2.0738195921759558E-012  -1.3242866966757068E-013
   16.060381000000000        3.7822399999999998        2.3015664612992240E-012  -1.5203549585267618E-013
   15.988924000000001        5.7197550000000001        2.3727440891768690E-012  -2.2349344106525613E-013
   15.900670000000000        7.7104239999999997        2.2783937342693452E-012  -3.0054071141550412E-013
   15.837438000000001        9.7522570000000002        2.2308421828233085E-012  -3.7140186341859652E-013
   15.826694000000000        11.821801000000001        2.2023529970296852E-012  -4.4287536784176743E-013
   15.852817999999999        13.886777000000000        2.1336908386662746E-012  -5.0533799322467033E-013
   15.896728000000000        15.937325000000000        2.2757900839338059E-012  -5.6384702976742685E-013
   13.831951999999999        15.917885999999999        1.8455166044581384E-012  -5.7760790239058751E-013
   11.759622000000000        15.921908999999999        1.6114178122989478E-012  -6.2048879598948672E-013
   9.6960770000000007        15.963800000000001        1.3494575326302728E-012  -6.4215053073644297E-013
   7.6701910000000000        16.054409000000000        1.0850088849514236E-012  -6.6264411592792556E-013
   5.6972339999999999        16.154388000000001        8.1077755307424169E-013  -7.0239123621931692E-013
   3.7706759999999999        16.234752000000000        6.1089848662863115E-013  -7.1927236075987248E-013
   3.6126290000000001        14.382660000000000        4.1494435772259489E-013  -6.5993261128975307E-013
   3.3977300000000001        12.595411000000000        4.3166030091712123E-013  -5.7371730097617688E-013
   3.1094650000000001        10.941761000000000        3.8845686395551340E-013  -5.3531914174781841E-013
   2.7465639999999998        9.5371749999999995        3.6557019070034789E-013  -4.9018090846889327E-013
   2.3634330000000001        8.4326260000000008        3.2360255955199683E-013  -4.6055293734552732E-013
   2.0305089999999999        7.5559029999999998        2.8386199379386845E-013  -4.3832739997943663E-013
   1.7653430000000001        6.8255160000000004        2.4971801868834267E-013  -4.2174440500832677E-013
   1.5566370000000000        6.1971100000000003        2.2345002118699296E-013  -4.0912611791605248E-013
   1.3937450000000000        5.6325390000000004        2.0445456387523342E-013  -3.9893869484754040E-013
   1.2637309999999999        5.1194100000000002        1.9169011044583021E-013  -3.9072459226219177E-013
   1.1592100000000001        4.6399559999999997        1.8545583538072025E-013  -3.8406377968322177E-013
   1.0725519999999999        4.1928029999999996        1.8279743937611750E-013  -3.7634895418973277E-013
  0.99750499999999998        3.7687040000000001        1.9211435554103749E-013  -3.7262294546998371E-013
  0.92668300000000003        3.3722949999999998        1.6567963480900158E-013  -3.6487011073712358E-013
   1.3941159999999999        3.2309480000000002        3.1905783370621333E-013  -3.4307691541370642E-013
   1.8810249999999999        3.0513659999999998        4.2884414856364402E-013  -2.7742316823384864E-013
   2.4462709999999999        2.8115549999999998        5.6027824923167645E-013  -2.1180575134800365E-013
   2.7870910000000002        2.3074610000000000        7.0760980614896546E-013  -1.5019440844980200E-013
   3.0496270000000001        1.8588000000000000        8.3569450257168990E-013  -1.0099950113700879E-013
   3.2639659999999999        1.4169579999999999        9.1858187150336839E-013  -4.9382191228593756E-014
   3.6849910000000001        1.5951660000000001        9.6161360856317750E-013  -6.1520111444659345E-014
   4.1753299999999998        1.8417550000000000        9.6340520607877391E-013  -5.0280070164380843E-014
   4.7112850000000002        1.8750260000000001        1.0199524651814545E-012  -5.0810492543599973E-014
   5.2182050000000002        2.0208719999999998        1.0617399358852280E-012  -5.4896339887163458E-014
   5.7593639999999997        2.2351120000000000        1.1052765351019541E-012  -6.1668746202542665E-014
   6.3605419999999997        2.5286409999999999        1.1534090729186778E-012  -7.1702140216306789E-014
   7.0513529999999998        2.9023990000000000        1.2135596575312833E-012  -8.5163702400330882E-014
   7.8726649999999996        3.3878300000000001        1.2914481030815416E-012  -1.0239552734472786E-013
   8.8939839999999997        3.9967180000000000        1.3961838509234210E-012  -1.1960998988911357E-013
   10.223242000000001        4.7158460000000000        1.5314039053314088E-012  -1.7026233425654319E-013
   12.038333000000000        5.1976779999999998        1.7677293113221081E-012  -1.9359186081167224E-013
   13.993703000000000        5.5110710000000003        1.9968748028583090E-012  -2.1580345651345993E-013
   13.811349000000000        7.4941920000000000        2.0708942952312512E-012  -2.9560191498833318E-013
   13.684137000000000        9.5886549999999993        1.9393338363167688E-012  -3.6871035256017029E-013
   13.687032000000000        11.726815000000000        1.9745783368817420E-012  -4.5305581880228444E-013
   13.749968000000001        13.841856000000000        1.9279104181146599E-012  -5.1890575658890730E-013
   11.621695000000001        13.824902000000000        1.6333474623288781E-012  -5.4909941817522077E-013
   9.4904209999999996        13.880160000000000        1.3335489206781631E-012  -5.5143654599063835E-013
   7.4360730000000004        14.056333000000000        1.0445231831826403E-012  -5.9576340684130138E-013
   5.4828799999999998        14.247196000000001        8.4627347735462694E-013  -6.2222847008436288E-013
   5.1815100000000003        12.380480000000000        6.0233404580151317E-013  -5.6303103799405247E-013
   4.7438969999999996        10.634880000000001        6.2187460471273460E-013  -4.7949618095945911E-013
   4.1391030000000004        9.1692529999999994        5.5334932042795382E-013  -4.5008783693250479E-013
   3.4770010000000000        8.1395820000000008        4.8320803466187384E-013  -4.2444122047807320E-013
   2.9614760000000002        7.3290199999999999        4.1657383408000768E-013  -4.0559725804963072E-013
   2.5724700000000000        6.6513289999999996        3.6661349220857264E-013  -3.9164849474502749E-013
   2.2781410000000002        6.0481939999999996        3.3025436246711475E-013  -3.7960637188777976E-013
   2.0476250000000000        5.5041359999999999        3.0443677711694368E-013  -3.6940020917429580E-013
   1.8654450000000000        4.9951319999999999        2.8778322196621055E-013  -3.5973768084767469E-013
   1.7176089999999999        4.5218629999999997        2.7864238149705147E-013  -3.5071596388051066E-013
   1.5964149999999999        4.0695649999999999        2.8671739769420277E-013  -3.4353614706602593E-013
   1.4926980000000001        3.6419290000000002        2.5728273944761660E-013  -3.3588695787371844E-013
   1.9842860000000000        3.4875289999999999        3.8384545229415011E-013  -2.9208642403144166E-013
   2.9874440000000000        2.9643020000000000        6.2687531785255122E-013  -1.7903109773726601E-013
   3.2117200000000001        2.5094210000000001        7.3005836151709767E-013  -1.2644079106939086E-013
   3.4491790000000000        2.0649099999999998        8.3595107958564506E-013  -8.0986134074185861E-014
   4.3132400000000004        2.2486679999999999        9.2630709432644619E-013  -6.9985293260904204E-014
   4.6247850000000001        2.3781940000000001        9.5232611026524760E-013  -7.6781817000882675E-014
   5.0521729999999998        2.5823420000000001        9.8973903684952749E-013  -8.2166823294763042E-014
   5.5399810000000000        2.8686159999999998        1.0223776634817763E-012  -9.0558330374148541E-014
   6.0835319999999999        3.2312590000000001        1.0631478621243273E-012  -1.0459757280772331E-013
   6.6921689999999998        3.7079900000000001        1.1099999719045669E-012  -1.2413586869829978E-013
   7.3958259999999996        4.3286059999999997        1.1673570860475507E-012  -1.4955238179149512E-013
   8.2470920000000003        5.1965760000000003        1.2199722653623177E-012  -1.7616728168503179E-013
   9.3653119999999994        6.5708289999999998        1.4334137293179187E-012  -2.3818562233406208E-013
   11.654859000000000        7.1618310000000003        1.6643720505184973E-012  -2.8586300462839473E-013
   3.8452320000000002        2.2858559999999999        8.5906316821389426E-013  -8.9907264547097245E-014
   4.1291479999999998        2.5383589999999998        8.5489917161934570E-013  -8.8830062850581420E-014
   11.477473000000000        11.648968000000000        1.5253574551891706E-012  -4.3771323229547406E-013
   9.2009220000000003        11.659401000000001        1.2894309787901531E-012  -4.9599726523010551E-013
   7.0913860000000000        12.035617000000000        1.0754989394255787E-012  -4.9871069326963637E-013
   6.5393540000000003        10.024957000000001        7.8871195557777802E-013  -4.2619559319579482E-013
   5.5754169999999998        8.3551839999999995        7.8165903639913809E-013  -3.8758457955960358E-013
   4.4392579999999997        7.5984699999999998        6.2563272245658561E-013  -3.7643689868702277E-013
   3.7546909999999998        6.9594009999999997        5.3478659253268775E-013  -3.6717273817308152E-013
   3.2835420000000002        6.3736800000000002        4.7440639500437026E-013  -3.5595702596359178E-013
   2.9295170000000001        5.8332050000000004        4.3167205067737352E-013  -3.4500199379152012E-013
   2.6540780000000002        5.3164930000000004        4.0196149454675127E-013  -3.3352711050598894E-013
   2.4312220000000000        4.8324680000000004        3.8285374721095203E-013  -3.2347946332725462E-013
   2.2511190000000001        4.3652990000000003        3.7384954518129702E-013  -3.1200727865201613E-013
   2.1038019999999999        3.9229039999999999        3.6660917451033096E-013  -3.0347761867197802E-013
   2.4598019999999998        3.3384980000000000        4.9934773587043066E-013  -2.4389470045512036E-013
   2.8238330000000000        3.2873440000000000        5.6158420437430982E-013  -2.1192528915446487E-013
   11.390551000000000        9.3676969999999997        1.7747542760638093E-012  -3.8032955289131587E-013
   8.7306969999999993        9.0642200000000006        1.2095744635970441E-012  -3.5462330966214875E-013
   5.6053540000000002        7.2754940000000001        8.0594583045013233E-013  -3.3292275263354206E-013
   4.9319519999999999        6.9291499999999999        7.0999518853417181E-013  -3.3351615147809913E-013
   4.3290810000000004        6.5005459999999999        6.2873517878004924E-013  -3.2741722376506079E-013
   3.8643689999999999        6.0421459999999998        5.6894244816144427E-013  -3.2012099652165138E-013
   3.5006300000000001        5.5616329999999996        5.2697815110532109E-013  -3.0828598214458926E-013
   3.2011159999999999        5.0922070000000001        4.9521703922582722E-013  -2.9639877732710229E-013
   2.9546540000000001        4.6273460000000002        4.7512015657806273E-013  -2.8278715264331837E-013
   2.7499829999999998        4.1852080000000003        4.7139991818681374E-013  -2.7233096690686990E-013
   2.5844090000000000        3.7517360000000002        4.4581286184780906E-013  -2.5562275329112704E-013
   7.1411179999999996        7.6679610000000000        1.0044631752446895E-012  -3.0147321437710643E-013
   6.2912010000000000        6.5353519999999996        9.4830751801634836E-013  -2.8232008104011433E-013
   7.9444049999999997        6.7089259999999999        1.1151519338273418E-012  -2.3766243387089331E-013
   3.0211640000000002        3.5663730000000000        5.5802846495758532E-013  -2.1885547869272083E-013
   3.4647690000000000        3.2332719999999999        6.7579685533024817E-013  -1.7185979580483349E-013
   3.6167870000000000        2.7138870000000002        7.7992024209049244E-013  -1.2445389194913472E-013
   3.9384380000000001        2.8111730000000001        8.0558828640884075E-013  -1.1624391311240805E-013
   4.4090710000000000        2.7924590000000000        8.9571275018695453E-013  -1.0765939524978677E-013
   4.8059019999999997        3.0761120000000002        9.0174410502118988E-013  -1.0884451578812061E-013
   5.2461310000000001        3.4078840000000001        9.3262722076739885E-013  -1.2333285015924625E-013
   5.7158490000000004        3.8283550000000002        9.6532669712727120E-013  -1.3995149492110183E-013
   6.2164029999999997        4.3480169999999996        1.0002212944682671E-012  -1.5996096601423880E-013
   6.7447220000000003        5.0229980000000003        1.0309814095460000E-012  -1.9145387554491818E-013
   7.3136070000000002        5.8669659999999997        1.1271774271389885E-012  -2.1646787969537689E-013
   5.3434850000000003        6.3034530000000002        8.0438951907981171E-013  -2.8330133223893979E-013
   4.7448800000000002        6.0628279999999997        7.0260734017359885E-013  -2.8851329277661156E-013
   4.3381769999999999        5.6937829999999998        6.5479103094469065E-013  -2.8552484261674257E-013
   3.9932710000000000        5.2743750000000000        6.1575659672421962E-013  -2.7430621921037317E-013
   3.6923339999999998        4.8304840000000002        5.8188655286857178E-013  -2.5743338515562533E-013
   3.4288569999999998        4.4007860000000001        5.6209920467257298E-013  -2.4940886018521134E-013
   3.2087960000000000        3.9723120000000001        5.4779183352452230E-013  -2.3125752202448760E-013
   4.0595689999999998        3.1934260000000001        7.6908897854319809E-013  -1.3653038128740934E-013
   4.5004249999999999        3.5015190000000000        8.0965251997084248E-013  -1.4288231902585004E-013
   4.8982219999999996        3.8702060000000000        8.4093753309203089E-013  -1.6136780504048362E-013
   5.2969350000000004        4.3007790000000004        8.7459443653158521E-013  -1.7409007977840322E-013
   5.6837819999999999        4.8366680000000004        8.8371918353657735E-013  -1.9194951279953448E-013
   6.0321689999999997        5.5192090000000000        9.5373271166587899E-013  -2.1894899618421999E-013
   5.3798800000000000        5.6798770000000003        8.0357505304314877E-013  -2.4322528880423580E-013
   4.9576779999999996        5.7123220000000003        7.5652641308829248E-013  -2.6170069525927507E-013
   4.7283340000000003        5.3912920000000000        7.3065539825061621E-013  -2.5316234817137887E-013